define=-DPOSRES
title                   = MD
integrator              = md       
nsteps                  = 125000000
dt                      = 0.002    
; Output control
nstxout                 = 0        
nstvout                 = 0        
nstfout                 = 0        
nstenergy               = 1000     
nstlog                  = 5000     
nstxout-compressed      = 5000     
compressed-x-grps       = System   
; Bond parameters
continuation            = yes      
constraint_algorithm    = lincs    
constraints             = h-bonds  
lincs_iter              = 1        
lincs_order             = 4        
; Neighborsearching
cutoff-scheme           = Verlet   
ns_type                 = grid     
nstlist                 = 10       
rcoulomb                = 1.0      
rvdw                    = 1.0      
; Electrostatics
coulombtype             = PME      
pme_order               = 4        
fourierspacing          = 0.16     
; Temperature coupling is on
tcoupl                  = V-rescale            
tc-grps                 = MM SOLV
tau_t                   = 0.1     0.1          
ref_t                   = 298     298          
; Pressure coupling is on
pcoupl                  = Parrinello-Rahman    
pcoupltype              = isotropic            
tau_p                   = 2.0                  
ref_p                   = 1.0                  
compressibility         = 4.5e-5               
; Periodic boundary conditions
pbc                     = xyz      
; Dispersion correction
DispCorr                = EnerPres 
; Velocity generation
gen_vel                 = no       
