title = NVT
define = -DPOSRES
integrator = md
nsteps = 100000
dt = 0.002
nstxout = 0
nstvout = 0
nstenergy = 0
nstlog = 500
nstxout-compressed      = 1000
continuation = no
constraint_algorithm = lincs
constraints = h-bonds
lincs_iter = 1
lincs_order = 4
cutoff-scheme = Verlet
ns_type = grid
nstlist = 10
rcoulomb = 1.0
rvdw = 1.0
DispCorr = EnerPres
coulombtype = PME
pme_order = 4
fourierspacing = 0.16
tcoupl = V-rescale
tc-grps = MM SOLV
tau_t = 0.1 0.1
ref_t = 298.15 298.15
pcoupl = no
pbc = xyz
gen_vel = yes
gen_temp = 298.15
gen_seed = -1
