define = -DPOSRES
title = PULL
integrator = md
nsteps = 3000000
dt = 0.002
nstfout = 0
nstxout = 0
nstvout = 0
nstenergy = 0
nstlog                   = 1000
xtc_precision            = 1000
nstxout-compressed      = 1000
continuation = yes
constraint_algorithm = lincs
constraints = h-bonds
lincs_iter = 1
lincs_order = 4
cutoff-scheme = Verlet
ns_type = grid
nstlist = 10
rcoulomb = 1.0
rvdw = 1.0
DispCorr = EnerPres
coulombtype = PME
pme_order = 4
fourierspacing = 0.16
tcoupl = V-rescale
tc-grps = CMPL SOLV
tau_t = 0.1 0.1
ref_t = 298.15 298.15
pcoupl = Parrinello-Rahman
pcoupltype = isotropic
tau_p = 2.0
ref_p = 1.0
compressibility = 4.5e-5
refcoord_scaling = com
pbc = xyz
gen_vel = no
pull = yes
pull_ncoords = 1
pull_ngroups = 2
pull_group2_name = MM
pull_group1_name = OCT
pull_coord1_type = umbrella
pull_coord1_geometry = direction
pull-pbc-ref-prev-step-com = yes
pull_coord1_groups = 2 1
pull-coord1-vec = 0 0 -1
pull_coord1_dim = N N Y
pull_group1_pbcatom = 0
pull_coord1_start = yes
pull_coord1_rate = 0.005
pull_coord1_k = 500
pull_group2_pbcatom = 2517
